    -----------------------------------------------------------------------
          Psi4: An Open-Source Ab Initio Electronic Structure Package
                              Psi4 (no tag) Driver

    J. M. Turney, A. C. Simmonett, R. M. Parrish, E. G. Hohenstein,
    F. A. Evangelista, J. T. Fermann, B. J. Mintz, L. A. Burns, J. J. Wilke,
    M. L. Abrams, N. J. Russ, M. L. Leininger, C. L. Janssen, E. T. Seidl,
    W. D. Allen, H. F. Schaefer, R. A. King, E. F. Valeev, C. D. Sherrill,
    and T. D. Crawford, WIREs Comput. Mol. Sci. 2, 556-565 (2012)
    (doi: 10.1002/wcms.93)

                         Additional Contributions by
    A. E. DePrince, M. Saitow, U. Bozkaya, A. Yu. Sokolov
    -----------------------------------------------------------------------


    Psi4 started on: Tue Mar  7 10:43:31 2017

    Process ID:   5373
    PSI4DATADIR: /usr/share/psi
    Memory level set to 256.000 MB

  ==> Input File <==

--------------------------------------------------------------------------
# Any line starting with the # character is a comment line
#! Sample HF/cc-pVDZ H2O computation

memory 250 mb

molecule h2o {
   0 1 
   H 0.00 0.00 0.80
   H 0.00 0.00 -0.80 
}

set basis sto-3g
energy('fci')

--------------------------------------------------------------------------

  Memory set to 250.000 MiB by Python script.

*** tstart() called on thinkpad
*** at Tue Mar  7 10:43:31 2017


         ---------------------------------------------------------
                                   SCF
            by Justin Turney, Rob Parrish, and Andy Simmonett
                              RHF Reference
                        1 Threads,    250 MiB Core
         ---------------------------------------------------------

  ==> Geometry <==

    Molecular point group: d2h
    Full point group: D_inf_h

    Geometry (in Angstrom), charge = 0, multiplicity = 1:

       Center              X                  Y                   Z       
    ------------   -----------------  -----------------  -----------------
           H          0.000000000000     0.000000000000     0.800000000000
           H          0.000000000000     0.000000000000    -0.800000000000

  Running in d2h symmetry.

  Rotational constants: A = ************  B =     13.06777  C =     13.06777 [cm^-1]
  Rotational constants: A = ************  B = 391761.79901  C = 391761.79901 [MHz]
  Nuclear repulsion =    0.330735755368750

  Charge       = 0
  Multiplicity = 1
  Electrons    = 2
  Nalpha       = 1
  Nbeta        = 1

  ==> Algorithm <==

  SCF Algorithm Type is PK.
  DIIS enabled.
  MOM disabled.
  Fractional occupation disabled.
  Guess Type is CORE.
  Energy threshold   = 1.00e-08
  Density threshold  = 1.00e-08
  Integral threshold = 0.00e+00

  ==> Primary Basis <==

  Basis Set: STO-3G
    Number of shells: 2
    Number of basis function: 2
    Number of Cartesian functions: 2
    Spherical Harmonics?: true
    Max angular momentum: 0

  ==> Pre-Iterations <==

   -------------------------------------------------------
    Irrep   Nso     Nmo     Nalpha   Nbeta   Ndocc  Nsocc
   -------------------------------------------------------
     Ag         1       1       0       0       0       0
     B1g        0       0       0       0       0       0
     B2g        0       0       0       0       0       0
     B3g        0       0       0       0       0       0
     Au         0       0       0       0       0       0
     B1u        1       1       0       0       0       0
     B2u        0       0       0       0       0       0
     B3u        0       0       0       0       0       0
   -------------------------------------------------------
    Total       2       2       1       1       1       0
   -------------------------------------------------------

  Starting with a DF guess...

 OEINTS: Overlap, kinetic, potential, dipole, and quadrupole integrals
         stored in file 35.

  ==> Integral Setup <==

  ==> DFJK: Density-Fitted J/K Matrices <==

    J tasked:                  Yes
    K tasked:                  Yes
    wK tasked:                  No
    OpenMP threads:              1
    Integrals threads:           1
    Memory (MB):               178
    Algorithm:                Core
    Integral Cache:           NONE
    Schwarz Cutoff:          1E-12
    Fitting Condition:       1E-12

   => Auxiliary Basis Set <=

  Basis Set: 
    Number of shells: 12
    Number of basis function: 28
    Number of Cartesian functions: 30
    Spherical Harmonics?: true
    Max angular momentum: 2

  Minimum eigenvalue in the overlap matrix is 7.7791753151E-01.
  Using Symmetric Orthogonalization.
  SCF Guess: Core (One-Electron) Hamiltonian.

  ==> Iterations <==

                           Total Energy        Delta E     RMS |[F,P]|

   @DF-RHF iter   1:    -0.88183538495375   -8.81835e-01   0.00000e+00 
   @DF-RHF iter   2:    -0.88183538495375    0.00000e+00   0.00000e+00 DIIS

  DF guess converged.

  ==> Integral Setup <==

 MINTS: Wrapper to libmints.
   by Justin Turney

   Calculation information:
      Number of atoms:                   2
      Number of AO shells:               2
      Number of SO shells:               1
      Number of primitives:              6
      Number of atomic orbitals:         2
      Number of basis functions:         2

      Number of irreps:                  8
      Integral cutoff                 0.00e+00
      Number of functions per irrep: [   1    0    0    0    0    1    0    0 ]

 OEINTS: Overlap, kinetic, potential, dipole, and quadrupole integrals
         stored in file 35.

      Computing two-electron integrals...done
      Computed 4 non-zero two-electron integrals.
        Stored in file 33.

	Batch   1 pq = [       0,       2] index = [             0,3]
  ==> DiskJK: Disk-Based J/K Matrices <==

    J tasked:                  Yes
    K tasked:                  Yes
    wK tasked:                  No
    Memory (MB):               178
    Schwarz Cutoff:          1E-12

   @RHF iter   3:    -0.88173244795212    1.02937e-04   0.00000e+00 DIIS
   @RHF iter   4:    -0.88173244795212    0.00000e+00   0.00000e+00 DIIS

  ==> Post-Iterations <==

    Orbital Energies (a.u.)
    -----------------------

    Doubly Occupied:                                                      

       1Ag    -0.335296  

    Virtual:                                                              

       1B1u    0.194598  

    Final Occupation by Irrep:
             Ag   B1g   B2g   B3g    Au   B1u   B2u   B3u 
    DOCC [     1,    0,    0,    0,    0,    0,    0,    0 ]

  Energy converged.

  @RHF Final Energy:    -0.88173244795212

   => Energetics <=

    Nuclear Repulsion Energy =              0.3307357553687500
    One-Electron Energy =                  -1.7543437054633770
    Two-Electron Energy =                   0.5418755021425048
    DFT Exchange-Correlation Energy =       0.0000000000000000
    Empirical Dispersion Energy =           0.0000000000000000
    PCM Polarization Energy =               0.0000000000000000
    EFP Energy =                            0.0000000000000000
    Total Energy =                         -0.8817324479521222

    Alert: EFP and PCM quantities not currently incorporated into SCF psivars.

Properties will be evaluated at   0.000000,   0.000000,   0.000000 Bohr
  ==> Properties <==


Properties computed using the SCF density matrix

  Nuclear Dipole Moment: (a.u.)
     X:     0.0000      Y:     0.0000      Z:     0.0000

  Electronic Dipole Moment: (a.u.)
     X:     0.0000      Y:     0.0000      Z:     0.0000

  Dipole Moment: (a.u.)
     X:     0.0000      Y:     0.0000      Z:     0.0000     Total:     0.0000

  Dipole Moment: (Debye)
     X:     0.0000      Y:     0.0000      Z:     0.0000     Total:     0.0000


  Saving occupied orbitals to File 180.

*** tstop() called on thinkpad at Tue Mar  7 10:43:31 2017
Module time:
	user time   =       0.24 seconds =       0.00 minutes
	system time =       0.00 seconds =       0.00 minutes
	total time  =          0 seconds =       0.00 minutes
Total time:
	user time   =       0.24 seconds =       0.00 minutes
	system time =       0.00 seconds =       0.00 minutes
	total time  =          0 seconds =       0.00 minutes

*** tstart() called on thinkpad
*** at Tue Mar  7 10:43:31 2017


	**************************************************
	* TRANSQT2: Program to transform integrals from  *
	*           the SO basis to the MO basis.        *
	*                                                *
	*            Daniel, David, & Justin             *
	**************************************************


	Input parameters:
	-----------------
	Wave function   =	DETCI
	Backtransform   =	No
	Print Level     =	1
	Print TEIs      =	No
	Reference wfn   =	RHF
	Derivative      =	None
	Delete TEI File =	Yes
	Memory (Mbytes) =	250.0
	Cache Level     =	2
	Cache Type      =	LRU
	Chkpt Parameters:
	--------------------
	Number of irreps     = 8
	Number of SOs        = 2
	Number of MOs        = 2
	Number of active MOs = 2

	Label	# SOs	# FZDC	# DOCC	# SOCC	# VIRT	# FZVR
	-----	-----	------	------	------	------	------
	 Ag	   1	    0	    1	    0	    0	    0
	 B1g	   0	    0	    0	    0	    0	    0
	 B2g	   0	    0	    0	    0	    0	    0
	 B3g	   0	    0	    0	    0	    0	    0
	 Au	   0	    0	    0	    0	    0	    0
	 B1u	   1	    0	    0	    0	    1	    0
	 B2u	   0	    0	    0	    0	    0	    0
	 B3u	   0	    0	    0	    0	    0	    0

	DOCC         =  1  0  0  0  0  0  0  0 
	SOCC         =  0  0  0  0  0  0  0  0 

	FROZEN DOCC  =  0  0  0  0  0  0  0  0 
	RESTR DOCC   =  0  0  0  0  0  0  0  0 
	RAS 1        =  1  0  0  0  0  0  0  0 
	RAS 2        =  0  0  0  0  0  0  0  0 
	RAS 3        =  0  0  0  0  0  1  0  0 
	RAS 4        =  0  0  0  0  0  0  0  0 
	RESTR UOCC   =  0  0  0  0  0  0  0  0 
	FROZEN UOCC  =  0  0  0  0  0  0  0  0 

	Nuclear Rep. energy (chkpt) =      0.33073575536875
	SCF energy          (chkpt) =     -0.88173244795212

	Presorting SO-basis two-electron integrals.
	Sorting File: SO Ints (pq,rs) nbuckets = 1
	Frozen-core energy =    0.000000000000000
	Starting first half-transformation.
	Sorting half-transformed integrals.
	Starting second half-transformation.
	Two-electron integral transformation complete.

*** tstop() called on thinkpad at Tue Mar  7 10:43:31 2017
Module time:
	user time   =       0.00 seconds =       0.00 minutes
	system time =       0.00 seconds =       0.00 minutes
	total time  =          0 seconds =       0.00 minutes
Total time:
	user time   =       0.24 seconds =       0.00 minutes
	system time =       0.00 seconds =       0.00 minutes
	total time  =          0 seconds =       0.00 minutes

*** tstart() called on thinkpad
*** at Tue Mar  7 10:43:31 2017


*******************************************************
                       D E T C I  

                   C. David Sherrill
                   Matt L. Leininger
                     18 June 1999
*******************************************************




DETCI PARAMETERS: 
   EX LEVEL      =        2      H0 BLOCKSIZE =      400
   VAL EX LEVEL  =        0      H0 GUESS SIZE=      400
   H0COUPLINGSIZE=        0      H0 COUPLING  =       no
   MAXITER       =       12      NUM PRINT    =       20
   NUM ROOTS     =        1      ICORE        =        1
   PRINT         =        1      FCI          =      yes
   R CONV        = 1.00e-04      MIXED        =      yes
   E CONV        = 1.00e-06      MIXED4       =      yes
   OEI FILE      =       35      R4S          =       no
   REPL OTF      =       no
   TEI FILE      =       72      DIAG METHOD  =      SEM
   PRECONDITIONER= DAVIDSON      UPDATE       = DAVIDSON
   S             =   0.0000      Ms0          =      yes
   MAX NUM VECS  =       13
   RESTART       =       no
   GUESS VECTOR  =  H0BLOCK      OPENTYPE     =     NONE
   REF SYM       =     auto
   COLLAPSE SIZE =        1      HD AVG       = EVANGELISTI
   LSE           =       no      LSE ITER     =        0
   HD OTF        =      yes      NO DFILE     =       no
   MPN           =       no      MPN SCHMIDT  =       no
   ZAPTN         =       no      MPN WIGNER   =       no
   PERT Z        =   1.0000      FOLLOW ROOT  =        0
   NUM THREADS   =        1
   VECS WRITE    =       no      NUM VECS WRITE =      0
   FILTER GUESS  =       no      SF RESTRICT  =       no
   OPDM          =       no      TRANS DENSITY=       no

   FILES         =  50 51 52 53

   EX ALLOW      =  1  1 
   STATE AVERAGE =  1(1.00) 
   STATE AVERAGE =  1(1.00) 

ORBITALS:
   NMO          =        2
   FROZEN CORE  =        0      RESTR CORE   =        0
   FROZEN VIRT  =        0      RESTR VIRT   =        0
   DROPPED CORE =        0      DROPPED VIRT =        0
   EXPLICIT CORE=        0      ORBS IN CI   =        2
   NUM ALP      =        1      NUM BET      =        1
   NUM ALP EXPL =        1      NUM BET EXPL =        1
   IOPEN        =       no
   RAS1 LVL     =        0      A RAS3 MAX   =        1
   RAS1 MIN     =        0      B RAS3 MAX   =        1
   A RAS1 LVL   =        0      RAS4 LVL     =        2
   A RAS1 MIN   =        0      A RAS4 MAX   =        0
   A RAS1 MAX   =        1      B RAS4 MAX   =        0
   B RAS1 LVL   =        0      RAS4 MAX     =        0
   B RAS1 MIN   =        0      A RAS34 MAX  =        1
   B RAS1 MAX   =        1      B RAS34 MAX  =        1
   RAS3 LVL     =        1      RAS34 MAX    =        2
   RAS3 MAX     =        2

   DOCC            =  1  0  0  0  0  0  0  0 
   SOCC            =  0  0  0  0  0  0  0  0 

   FROZEN DOCC     =  0  0  0  0  0  0  0  0 
   RESTRICTED DOCC =  0  0  0  0  0  0  0  0 
   RAS 1           =  1  0  0  0  0  0  0  0 
   RAS 2           =  0  0  0  0  0  0  0  0 
   RAS 3           =  0  0  0  0  0  1  0  0 
   RAS 4           =  0  0  0  0  0  0  0  0 
   RESTRICTED UOCC =  0  0  0  0  0  0  0  0 
   FROZEN UOCC     =  0  0  0  0  0  0  0  0 
*******************************************************


There are 2 alpha strings
There are 2 beta strings
CI space contains    2 blocks

CI space requires 2 determinants

Check SCF Energy from 1- and 2-electron integrals

SCF Energy (ref):             -0.8817324480
Nuclear repulsion energy:      0.3307357554
One-electron energy:          -1.7543437055
Two-electron energy:           0.5418755021
Dropped core energy:           0.0000000000
Total electronic energy:      -1.2124682033
Total SCF energy:             -0.8817324480

 CI vector/subblock length = 2

*** H0 Block Eigenvalue =  -0.98347273

Find the roots by the Simultaneous Expansion Method (Block Davidson Method)
Energy convergence = 1e-06
RMS CI vector convergence = 0.0001

Using 1 initial trial vectors
Iter  0  Root  1 =  -0.983472728   Delta_E -1.314E+00   Delta_C  2.220E-16  
Warning: Norm of correction (root 0) is < 1.0E-13
Iter  1  Root  1 =  -0.983472728   Delta_E  0.000E+00   Delta_C  3.406E-16 c

* ROOT 1 CI total energy =  -0.9834727280933


The 2 most important determinants

    1    0.918241  (    0,    0)  1AgX  
    2   -0.396022  (    1,    1)  1B1uX  




        Total Time (s)     %Time 		%Relative
 -----------------------------------------------------
 Read      0.000046
 Write     0.000046
 Sigma1    0.000000
 Sigma2    0.000003
 Sigma3    0.000003
 S1 Thread 0.000000
 S2 Thread 0.000000
 S3 Thread 0.000000

		 "A good bug is a dead bug" 

			 - Starship Troopers

		 "I didn't write FORTRAN.  That's the problem."

			 - Edward Valeev


*** tstop() called on thinkpad at Tue Mar  7 10:43:32 2017
Module time:
	user time   =       0.03 seconds =       0.00 minutes
	system time =       0.00 seconds =       0.00 minutes
	total time  =          1 seconds =       0.02 minutes
Total time:
	user time   =       0.27 seconds =       0.00 minutes
	system time =       0.00 seconds =       0.00 minutes
	total time  =          1 seconds =       0.02 minutes

*** PSI4 exiting successfully. Buy a developer a beer!
